User input:
--------------------------------------------------------------
$molecule
+1 1
H	0.000000	0.000000	0.0000000
He	0.000000	0.000000	10.0000000
$end

$rem
jobtype         sp
correlation     none
exchange        hf
adc_order       2
adc_singlets    1
sym_ignore      true
adc_prop_es     true
mem_total       7000
mem_static      1000
basis           3-21G
threads         2
n_frozen_core   fc
make_cube_files false
cis_ampl_anal   true
molden_format   false
$end

$plots
Plot all four types of quantities
100 -2.0 2.0
100 -2.0 2.0
100 -2.0 10.0
0 8 8 8
1 2 3 4 5 6 7 8
$end
--------------------------------------------------------------

       Standard Nuclear Orientation (Angstroms)
    I     Atom         X            Y            Z
 ----------------------------------------------------
    1      H       0.000000     0.000000     0.000000
    2      He      0.000000     0.000000    10.000000
 ----------------------------------------------------

    2      -2.8356798738      2.33E-09  00000 Convergence criterion met
 Total energy in the final basis set = -2.8356798738
  Excited state 1:
  Excitation energy:            10.49176 eV, Abs. energy:       -2.4616114833 a.u.
    Term symbol:                    2 (1) A

                    Orbital Energies (a.u.)
 --------------------------------------------------------------

 Alpha MOs
 -- Occupied --
 -0.956

          Ground-State Mulliken Net Atomic Charges

     Atom                 Charge (a.u.)
  ----------------------------------------
      1 H                     1.000000
      2 He                    0.000000
  ----------------------------------------
  Sum of atomic charges =     1.000000

                    Cartesian Multipole Moments
 -----------------------------------------------------------------
    Charge (ESU x 10^10)
                 4.8032
    Dipole Moment (Debye)
         X       0.0000      Y       0.0000      Z       0.0000
       Tot       0.0000
    Quadrupole Moments (Debye-Ang)
        XX      -1.0114     XY       0.0000     YY      -1.0114
        XZ       0.0000     YZ       0.0000     ZZ      -1.0114
    Octapole Moments (Debye-Ang^2)
       XXX       0.0000    XXY       0.0000    XYY       0.0000
       YYY       0.0000    XXZ     -10.1139    XYZ       0.0000
       YYZ     -10.1139    XZZ       0.0000    YZZ       0.0000
       ZZZ     -30.3417
    Hexadecapole Moments (Debye-Ang^3)
      XXXX      -0.4558   XXXY       0.0000   XXYY      -0.1519
      XYYY       0.0000   YYYY      -0.4558   XXXZ       0.0000
      XXYZ       0.0000   XYYZ       0.0000   YYYZ       0.0000
      XXZZ    -101.2909   XYZZ       0.0000   YYZZ    -101.2909

 Total job time:  9.49s(wall), 5.54s(cpu)
        *  Thank you very much for using Q-Chem.  Have a nice day.  *
